version 2
run General-0-20220118-14:45:03-1507
attr configname General
attr datetime 20220118-14:45:03
attr experiment General
attr inifile myNetStopAndWait.ini
attr iterationvars ""
attr iterationvarsf ""
attr measurement ""
attr network myNetStopAndWait
attr processid 1507
attr repetition 0
attr replication #0
attr resultdir results
attr runnumber 0
attr seedset 0

vector 0 myNetStopAndWait.conmutador1.repartidor numRcvd:vector ETV
attr interpolationmode none
attr source rcvdSignal
attr title "num received, vector"
vector 1 myNetStopAndWait.conmutador1.repartidor numSent:vector ETV
attr interpolationmode none
attr source sentSignal
attr title "num sent, vector"
vector 2 myNetStopAndWait.protocolLink1[1].transceptorEmisor numRcvd:vector ETV
attr interpolationmode none
attr source rcvdSignal
attr title "num received, vector"
vector 3 myNetStopAndWait.protocolLink1[1].transceptorEmisor bufferLength:vector ETV
attr interpolationmode none
attr source bufferSignal
attr title "num received, vector"
vector 4 myNetStopAndWait.conmutador5.repartidor numRcvd:vector ETV
attr interpolationmode none
attr source rcvdSignal
attr title "num received, vector"
vector 5 myNetStopAndWait.conmutador5.repartidor numSent:vector ETV
attr interpolationmode none
attr source sentSignal
attr title "num sent, vector"
vector 6 myNetStopAndWait.protocolLink5[0].transceptorEmisor numRcvd:vector ETV
attr interpolationmode none
attr source rcvdSignal
attr title "num received, vector"
vector 7 myNetStopAndWait.protocolLink5[0].transceptorEmisor bufferLength:vector ETV
attr interpolationmode none
attr source bufferSignal
attr title "num received, vector"
vector 8 myNetStopAndWait.protocolLink1[1].transceptorEmisor numSent:vector ETV
attr interpolationmode none
attr source sentSignal
attr title "num sent, vector"
vector 9 myNetStopAndWait.conmutador2.repartidor numRcvd:vector ETV
attr interpolationmode none
attr source rcvdSignal
attr title "num received, vector"
vector 10 myNetStopAndWait.conmutador2.repartidor numSent:vector ETV
attr interpolationmode none
attr source sentSignal
attr title "num sent, vector"
vector 11 myNetStopAndWait.protocolLink2[1].transceptorEmisor numRcvd:vector ETV
attr interpolationmode none
attr source rcvdSignal
attr title "num received, vector"
vector 12 myNetStopAndWait.protocolLink2[1].transceptorEmisor bufferLength:vector ETV
attr interpolationmode none
attr source bufferSignal
attr title "num received, vector"
vector 13 myNetStopAndWait.conmutador4.repartidor numRcvd:vector ETV
attr interpolationmode none
attr source rcvdSignal
attr title "num received, vector"
vector 14 myNetStopAndWait.conmutador4.repartidor durationNetwork:vector ETV
attr interpolationmode none
attr source timeSignal
attr title "time in network, vector"
vector 15 myNetStopAndWait.protocolLink2[1].transceptorEmisor numSent:vector ETV
attr interpolationmode none
attr source sentSignal
attr title "num sent, vector"
vector 16 myNetStopAndWait.protocolLink2[0].transceptorEmisor numRcvd:vector ETV
attr interpolationmode none
attr source rcvdSignal
attr title "num received, vector"
vector 17 myNetStopAndWait.protocolLink2[0].transceptorEmisor bufferLength:vector ETV
attr interpolationmode none
attr source bufferSignal
attr title "num received, vector"
vector 18 myNetStopAndWait.protocolLink5[0].transceptorEmisor numSent:vector ETV
attr interpolationmode none
attr source sentSignal
attr title "num sent, vector"
vector 19 myNetStopAndWait.conmutador3.repartidor numRcvd:vector ETV
attr interpolationmode none
attr source rcvdSignal
attr title "num received, vector"
vector 20 myNetStopAndWait.conmutador3.repartidor durationNetwork:vector ETV
attr interpolationmode none
attr source timeSignal
attr title "time in network, vector"
vector 21 myNetStopAndWait.protocolLink2[0].transceptorEmisor numSent:vector ETV
attr interpolationmode none
attr source sentSignal
attr title "num sent, vector"
vector 22 myNetStopAndWait.protocolLink1[0].transceptorEmisor numRcvd:vector ETV
attr interpolationmode none
attr source rcvdSignal
attr title "num received, vector"
vector 23 myNetStopAndWait.protocolLink1[0].transceptorEmisor bufferLength:vector ETV
attr interpolationmode none
attr source bufferSignal
attr title "num received, vector"
vector 24 myNetStopAndWait.protocolLink5[1].transceptorEmisor numRcvd:vector ETV
attr interpolationmode none
attr source rcvdSignal
attr title "num received, vector"
vector 25 myNetStopAndWait.protocolLink5[1].transceptorEmisor bufferLength:vector ETV
attr interpolationmode none
attr source bufferSignal
attr title "num received, vector"
vector 26 myNetStopAndWait.protocolLink5[1].transceptorEmisor numSent:vector ETV
attr interpolationmode none
attr source sentSignal
attr title "num sent, vector"
vector 27 myNetStopAndWait.protocolLink1[0].transceptorEmisor numSent:vector ETV
attr interpolationmode none
attr source sentSignal
attr title "num sent, vector"
0	2	0.449280202389	1
0	30	1.388762235642	2
0	44	1.398975029588	3
0	77	2.205976083875	4
0	98	2.679474428296	5
0	107	3.20889146626	6
0	123	3.434942498803	7
0	223	6.114992633462	8
0	232	6.194163389504	9
0	262	6.478115476668	10
0	333	7.54286519438	11
0	342	8.151374913752	12
0	377	9.071241296828	13
0	433	10.039529897273	14
0	453	10.293462462724	15
0	458	10.322498643772	16
0	500	10.918427670376	17
0	524	11.285111511128	18
0	569	12.346484864132	19
0	573	12.41315517761	20
0	660	13.823473194616	21
0	668	13.980472141879	22
0	692	14.157270425933	23
0	696	14.199560170996	24
0	746	14.945876246321	25
0	767	15.252595787871	26
0	815	16.192155009139	27
0	825	16.269797800112	28
0	850	16.349303809929	29
0	915	17.521238652992	30
0	919	17.585025442767	31
0	940	17.80560284667	32
0	952	17.940965039658	33
0	956	17.976216012614	34
0	961	17.992718005555	35
0	965	18.062955865639	36
0	994	18.400633791464	37
0	998	18.437159618365	38
0	1029	18.980261286723	39
0	1124	20.364833554255	40
0	1204	21.493571957575	41
0	1218	22.113090237604	42
0	1244	22.462380727754	43
0	1257	22.983302971349	44
0	1267	23.273807307706	45
0	1352	24.533751627431	46
0	1356	24.565263347701	47
0	1370	24.667156035081	48
0	1374	24.668708213489	49
0	1390	24.986759939115	50
0	1394	25.019406736712	51
0	1412	25.204396323185	52
0	1452	25.653597519617	53
0	1484	26.378258452635	54
0	1528	27.490149841528	55
0	1532	27.510378819774	56
0	1551	27.668592509697	57
0	1567	27.903396529029	58
0	1572	28.093456041883	59
0	1583	28.353367012809	60
0	1612	28.731794160674	61
0	1679	29.674851697753	62
0	1720	30.699220699142	63
0	1724	30.79758104391	64
0	1738	30.890805859934	65
0	1750	31.069431756507	66
0	1832	31.709829901229	67
0	1840	32.12974665023	68
0	1853	32.192259427976	69
0	1860	32.336366009783	70
0	1919	33.647778821062	71
0	1932	33.733304728638	72
0	1938	34.13769980229	73
0	1995	35.36944707192	74
0	2025	35.867751707206	75
0	2040	36.163839121232	76
0	2070	36.594869931111	77
0	2074	36.639327113399	78
0	2103	37.647235815296	79
0	2112	37.708827500114	80
0	2116	37.754546825656	81
0	2167	38.750154618987	82
0	2234	40.09645450569	83
0	2244	40.16886257089	84
0	2262	40.333193604716	85
0	2299	40.715953831443	86
0	2303	40.747421071747	87
0	2311	41.10090516589	88
0	2344	41.462628171662	89
0	2356	41.588973359088	90
0	2360	41.599559674854	91
0	2364	41.62352063402	92
0	2374	41.76316458627	93
0	2394	42.247614777529	94
0	2408	42.463256440007	95
0	2412	42.633306226575	96
0	2425	42.787454998934	97
0	2455	43.280150121891	98
0	2503	44.147984332287	99
0	2509	44.250818892264	100
0	2536	44.504557981038	101
0	2562	45.10797251656	102
0	2640	46.814429177784	103
0	2644	46.925321004235	104
0	2648	47.015075354718	105
0	2666	47.523669986867	106
0	2674	47.648682131313	107
0	2684	47.901622607254	108
0	2724	48.514409079098	109
0	2728	48.523540128835	110
0	2742	49.249399413236	111
0	2786	49.692949225076	112
0	2794	49.923588951	113
0	2829	50.475227852234	114
0	2873	51.631585498222	115
0	2919	52.369129021534	116
0	2982	53.144514878162	117
0	3031	53.951234360107	118
0	3180	56.720953960784	119
0	3293	58.390217681296	120
0	3305	58.501908150382	121
0	3309	58.532887321777	122
0	3511	62.948270660705	123
0	3552	64.275184851951	124
0	3583	64.623222810096	125
0	3597	65.255366486377	126
0	3616	65.860338074035	127
0	3654	66.805023235149	128
0	3660	67.012857285208	129
0	3765	68.585456219382	130
0	3783	68.829140734739	131
0	3814	69.767856133051	132
0	3833	70.077895146675	133
0	3870	70.444864106245	134
0	3893	70.582274881072	135
0	3898	70.649905380673	136
0	3943	71.602476295895	137
0	3960	71.966172811455	138
0	3974	72.108426433868	139
0	4028	72.842985194988	140
0	4074	74.406243485279	141
0	4115	75.123831433124	142
0	4155	75.900521856613	143
0	4173	76.183200281925	144
0	4215	76.910849553413	145
0	4245	77.38395593769	146
0	4264	77.851873499221	147
0	4310	78.618247610397	148
0	4316	78.731049922175	149
0	4333	79.08978771872	150
0	4346	79.257370051808	151
0	4388	79.735402253337	152
0	4396	80.105337497659	153
0	4428	80.563713458247	154
0	4453	81.180728283591	155
0	4482	81.579336521096	156
0	4508	82.019130197234	157
0	4512	82.067632500894	158
0	4542	82.470213328369	159
0	4552	82.701386039026	160
0	4562	82.830857475169	161
0	4632	84.174635012515	162
0	4664	85.051792998679	163
0	4668	85.065814349681	164
0	4672	85.098300706476	165
0	4704	85.881685268015	166
0	4714	86.151494812101	167
0	4734	86.485180120796	168
0	4740	86.691813718408	169
0	4762	87.287135135263	170
0	4791	87.611317168802	171
0	4805	87.974021594852	172
0	4809	88.11976883921	173
0	4902	89.703606705993	174
0	4910	89.923901151746	175
0	4954	90.893513511747	176
0	4958	91.024698700637	177
0	4993	91.632806327075	178
0	4999	91.712478507191	179
0	5003	91.809333894283	180
0	5048	93.355398032695	181
0	5078	94.030907783538	182
0	5107	94.418849829465	183
0	5186	95.364182356626	184
0	5198	95.519470710188	185
0	5252	97.194646019369	186
0	5279	97.419897857934	187
0	5305	97.584939110905	188
0	5311	97.75163723889	189
0	5367	99.006565112501	190
0	5375	99.05043290171	191
0	5385	99.162318285435	192
0	5423	99.870892997711	193
0	5451	100.261600252121	194
0	5484	100.607624646156	195
0	5525	101.443479474514	196
0	5543	101.615899335473	197
0	5557	101.833931367724	198
0	5565	102.007858868568	199
0	5584	102.360021587341	200
0	5588	102.436519827573	201
0	5606	102.621230956046	202
0	5616	102.790952917067	203
0	5624	103.077162679163	204
0	5665	104.165946658579	205
0	5683	104.273088555661	206
0	5735	105.144175868359	207
0	5756	105.602910380688	208
0	5799	106.320176344242	209
0	5803	106.335069087211	210
0	5808	106.387108621065	211
0	5822	106.482010480825	212
0	5826	106.613287967507	213
0	5885	107.7505096615	214
0	5929	108.765676063363	215
0	5961	109.245614123408	216
0	5967	109.452189472381	217
0	6003	109.703032729093	218
0	6012	109.85643410391	219
0	6020	110.066007790033	220
0	6030	110.188425768975	221
0	6139	112.417074193124	222
0	6200	113.483126749162	223
0	6204	113.505042343278	224
0	6208	113.65515015914	225
0	6240	114.054082169075	226
0	6306	114.530267848511	227
0	6319	114.659126012464	228
0	6337	114.944265692373	229
0	6381	115.614739685198	230
0	6405	116.11724039807	231
0	6451	116.610096572777	232
0	6480	117.121641932865	233
0	6506	117.608714251657	234
0	6532	117.852707131644	235
0	6550	118.353235348006	236
0	6554	118.376490690624	237
0	6558	118.431449429011	238
0	6570	118.597594098067	239
0	6591	118.882466212725	240
0	6647	119.964451805567	241
0	6658	120.374617830729	242
0	6676	120.680571750617	243
0	6686	120.984936014628	244
0	6690	121.001014671167	245
0	6696	121.247007778724	246
0	6760	123.101797512611	247
0	6774	123.236776119908	248
0	6778	123.302738888999	249
0	6811	123.84909443452	250
0	6904	125.061732455035	251
0	6985	127.061529322406	252
0	7094	128.839325948497	253
0	7178	130.634253783961	254
0	7192	130.857591240545	255
0	7202	131.025972737809	256
0	7243	131.582587315579	257
0	7266	132.153650178452	258
0	7315	132.931632532616	259
0	7335	133.17844034626	260
0	7359	133.962387992878	261
0	7371	134.219571127434	262
0	7376	134.224996459548	263
0	7414	135.029041183059	264
0	7451	135.944862973754	265
0	7487	136.761433851783	266
0	7499	137.083995920484	267
0	7554	137.813129288022	268
0	7603	138.532415193383	269
0	7607	138.552713337232	270
0	7617	138.662086221267	271
0	7625	138.985794606496	272
0	7629	138.990439667244	273
0	7637	139.138515381951	274
0	7656	139.48747438087	275
0	7660	139.573118573864	276
0	7753	141.74779809161	277
0	7765	142.229804820259	278
0	7782	142.63939747854	279
0	7789	142.730070686777	280
0	7793	142.937562069734	281
0	7857	144.025560936769	282
0	7871	144.384082696279	283
0	7888	144.657004347881	284
0	7910	145.070231458982	285
0	7914	145.12083643197	286
0	7920	145.193009856035	287
0	7961	145.716878178407	288
0	7995	146.478818836499	289
0	8067	147.463245275307	290
0	8079	147.739998492289	291
0	8087	147.918859499383	292
0	8099	148.046573537278	293
0	8179	149.350848453927	294
0	8328	152.552279489922	295
0	8375	153.403407770085	296
0	8393	153.883034455466	297
0	8427	154.535574245143	298
0	8449	154.798401403117	299
0	8457	155.062708455014	300
0	8478	155.602970081258	301
0	8531	157.264638501096	302
0	8537	157.315187337685	303
0	8541	157.377364027191	304
0	8560	158.309792625595	305
0	8576	158.519376831938	306
0	8594	158.903208034922	307
0	8598	158.981375465978	308
0	8607	159.20640770613	309
0	8638	159.447622532833	310
0	8646	159.493618710775	311
0	8668	159.813876642723	312
0	8721	160.687201811809	313
0	8725	160.884114100475	314
0	8729	161.083381770987	315
0	8741	161.207904285628	316
0	8772	161.865359014708	317
0	8890	163.294243163306	318
0	8953	164.282599753577	319
0	8973	164.530679694254	320
0	8991	164.689792997081	321
0	9019	165.667287415702	322
0	9029	165.995840585668	323
0	9033	165.998546696145	324
0	9037	166.025679706473	325
0	9041	166.038786429789	326
0	9051	166.307361561682	327
0	9107	166.482787627604	328
0	9111	166.660539883997	329
0	9120	166.689329547684	330
0	9146	167.2521146367	331
0	9168	167.439418030779	332
0	9173	167.44269830791	333
0	9191	167.627666317501	334
0	9229	168.572747193851	335
0	9267	169.332095943965	336
0	9311	169.945521735229	337
0	9378	171.392921589889	338
0	9382	171.409919452496	339
0	9406	171.483829912372	340
0	9473	172.95653515739	341
0	9477	173.06081855727	342
0	9530	173.818237845428	343
0	9538	173.900109004803	344
0	9542	173.988890369065	345
0	9608	175.35256512893	346
0	9631	175.673153985866	347
0	9666	176.416881252654	348
0	9746	178.239847947486	349
0	9785	178.694703776963	350
0	9793	178.87279986275	351
0	9798	178.936141003497	352
0	9884	180.28188382519	353
0	9976	181.52409814728	354
0	9984	181.610054646261	355
0	10016	182.159261737592	356
0	10026	182.286080200798	357
0	10107	183.580355961449	358
0	10166	184.505101819165	359
0	10251	186.191559214719	360
0	10290	186.672898997195	361
0	10294	186.724564817376	362
0	10313	187.530646946854	363
0	10318	187.532889282671	364
0	10328	187.888055866924	365
0	10332	187.894974307031	366
0	10391	188.860700563402	367
0	10395	188.880131210075	368
0	10411	189.425917114006	369
0	10515	190.668070996986	370
0	10523	190.861092637168	371
0	10541	191.203884224282	372
0	10588	191.562480012761	373
0	10592	191.595540436791	374
0	10601	191.737091841982	375
0	10623	192.284043433951	376
0	10629	192.327968488322	377
0	10666	192.967043886767	378
0	10690	193.543360243426	379
0	10696	193.791738296734	380
0	10721	194.183768684851	381
0	10725	194.307707774328	382
0	10758	194.741255569147	383
0	10804	195.58840291469	384
0	10844	196.253197180914	385
0	10880	197.048489081549	386
0	10923	198.136100876021	387
0	10932	198.218755933332	388
0	10966	199.204828056383	389
0	10985	199.590808096218	390
0	11000	199.669683429289	391
0	11077	201.097673746634	392
0	11192	203.549834105063	393
0	11206	203.88437357812	394
0	11210	203.887671065627	395
0	11286	205.068333697616	396
0	11292	205.201492530404	397
0	11307	205.541575384437	398
0	11313	205.733016175329	399
0	11337	206.204534453451	400
0	11355	206.457706910669	401
0	11383	206.480081795826	402
0	11391	206.509523221403	403
0	11408	206.761776962429	404
0	11467	207.540231444984	405
0	11485	207.948083945661	406
0	11506	208.453761407285	407
0	11544	208.963755794912	408
0	11548	208.985024442076	409
0	11552	209.093187046348	410
0	11562	209.104554989486	411
0	11572	209.313343742042	412
0	11592	209.951775589137	413
0	11600	210.035230853705	414
0	11612	210.150881805567	415
0	11662	211.079429485945	416
0	11666	211.083285778405	417
0	11701	211.732896476628	418
0	11762	213.22628501022	419
0	11823	214.162677377106	420
0	11827	214.279589011909	421
0	11833	214.4694090333	422
0	11859	214.885783031227	423
0	11915	215.662575438263	424
0	11975	216.734620883705	425
0	12026	217.515343442203	426
0	12034	217.639688573421	427
0	12049	217.670643755809	428
0	12076	218.701630422488	429
0	12084	219.019499310866	430
0	12096	219.431982436791	431
0	12227	221.512284198418	432
0	12231	221.575010643914	433
0	12243	222.094391749814	434
0	12294	223.351026700452	435
0	12302	223.449966521576	436
0	12335	224.106234045342	437
0	12353	224.298332066849	438
0	12392	224.845910759285	439
0	12396	224.902978656456	440
0	12473	225.785608647034	441
0	12478	225.850864229367	442
0	12512	226.489301858113	443
0	12529	226.968464044497	444
0	12533	227.045505387351	445
0	12539	227.15998133795	446
0	12569	227.631354210541	447
0	12622	228.900215861962	448
0	12630	228.990236883626	449
0	12644	229.264387791619	450
0	12657	229.333714043364	451
0	12673	229.508434047565	452
0	12683	230.010628988609	453
0	12693	230.159862151012	454
0	12701	230.190865698844	455
0	12733	230.985156062633	456
0	12737	230.987642536281	457
0	12784	232.301608929752	458
0	12835	233.309811840175	459
0	12842	233.388443732975	460
0	12868	233.841437960384	461
0	12893	234.35700734925	462
0	12925	234.827367211101	463
0	12929	234.992579231379	464
0	12951	235.523666331885	465
0	12992	236.379693577407	466
0	13026	236.843252877114	467
0	13055	237.738408426163	468
0	13063	238.073257336733	469
0	13067	238.086251335559	470
0	13093	239.137496190486	471
0	13106	239.170181559739	472
0	13132	239.731638359246	473
0	13150	240.279879795727	474
0	13192	240.82202922028	475
0	13210	241.119096951899	476
0	13239	241.753614442763	477
0	13243	241.931106822905	478
0	13251	242.05309122276	479
0	13276	242.274412596938	480
0	13323	243.272799397227	481
0	13350	243.524232769725	482
0	13360	243.818242008207	483
0	13368	243.968965405939	484
0	13389	244.275332296608	485
0	13422	244.567101562737	486
0	13426	244.583024949177	487
0	13445	245.251391619786	488
0	13474	245.667384505614	489
0	13484	245.809127226814	490
0	13488	245.868439939215	491
0	13504	245.940634657039	492
0	13626	248.222507644786	493
0	13654	248.490605224265	494
0	13658	248.581321064724	495
0	13672	248.824499521746	496
0	13691	249.192927394404	497
0	13724	249.874930594458	498
0	13728	249.935959175571	499
0	13786	250.876078382476	500
0	13795	250.97558642958	501
0	13799	250.997155879035	502
0	13814	251.433140341535	503
0	13907	253.323216621175	504
0	13995	254.501180950895	505
0	14043	255.484034780756	506
0	14057	255.765096549288	507
0	14062	256.048987333075	508
0	14066	256.065383565024	509
0	14090	256.395913940266	510
0	14114	257.143979531124	511
0	14158	257.598336261108	512
0	14238	258.57996330817	513
0	14242	258.588808065623	514
0	14274	259.010387247771	515
0	14287	259.308892255992	516
0	14317	259.481645649642	517
0	14348	259.916314399213	518
0	14400	261.249072587461	519
0	14404	261.293333212257	520
0	14414	261.368991921068	521
0	14431	261.491302425385	522
0	14439	261.56946110946	523
0	14447	261.750890912831	524
0	14466	262.117539378226	525
0	14483	262.462299587548	526
0	14507	262.848057272256	527
0	14511	263.000377999962	528
0	14519	263.058177555323	529
0	14525	263.204540053726	530
0	14541	263.405600110412	531
0	14595	264.205570558429	532
0	14613	264.449080894113	533
0	14621	264.588757315994	534
0	14625	264.653201053262	535
0	14662	264.91591558826	536
0	14666	265.135184759617	537
0	14672	265.239169473171	538
0	14715	265.786064798355	539
0	14723	265.912211934447	540
0	14727	265.950184686452	541
0	14789	266.822190506726	542
0	14799	267.270055933266	543
0	14817	267.656394793063	544
0	14842	268.026709808379	545
0	14866	268.359421952039	546
0	14874	268.423705166548	547
0	14882	268.520373171538	548
0	14890	268.625565862626	549
0	14914	269.192357695073	550
0	14933	269.399282342166	551
0	14937	269.455948064447	552
0	14956	269.700454125524	553
0	14997	270.481879840017	554
0	15001	270.633696088911	555
0	15009	270.668898156256	556
0	15021	271.111607781023	557
0	15066	271.706517568201	558
0	15070	271.742062000901	559
0	15257	274.780789284379	560
0	15261	274.93932427314	561
0	15279	275.237441195519	562
0	15287	275.304671010346	563
0	15343	275.792921176524	564
0	15388	277.008023253054	565
0	15392	277.065184122295	566
0	15414	277.179871341557	567
0	15430	277.356438687415	568
0	15438	277.465737877757	569
0	15463	277.947535543115	570
0	15529	279.166959910066	571
0	15533	279.201870052488	572
0	15537	279.242875675084	573
0	15555	279.607431093575	574
0	15609	281.510703960778	575
0	15613	281.590989673855	576
0	15621	282.033579850914	577
0	15649	282.458457703115	578
0	15687	283.106214458467	579
0	15711	283.388574535371	580
0	15724	283.545308271767	581
0	15730	283.72268992138	582
0	15816	284.94993370247	583
0	15820	284.986969458283	584
0	15832	285.05275713128	585
0	15882	285.762412058534	586
0	15911	285.775396751584	587
0	16015	288.052324699582	588
0	16022	288.215960787953	589
0	16028	288.361410485924	590
0	16047	288.600270914257	591
0	16072	288.776915939868	592
0	16086	289.195649894298	593
0	16111	289.343275579036	594
0	16202	290.521024020732	595
0	16263	291.849039944232	596
0	16291	292.496128114284	597
0	16295	292.629956024111	598
0	16305	292.689001629472	599
0	16311	293.046127865434	600
0	16328	293.303187111736	601
0	16370	293.80042288673	602
0	16404	294.44401029718	603
0	16412	294.59692291391	604
0	16429	295.140015522362	605
0	16439	295.307754496456	606
0	16457	295.729403237224	607
0	16467	296.050811151386	608
0	16471	296.053678685211	609
0	16478	296.315882020973	610
0	16531	296.899749809288	611
0	16551	297.553277367138	612
0	16570	297.830250733875	613
0	16574	297.839093641721	614
0	16578	298.023848654114	615
0	16582	298.089551375591	616
0	16586	298.124647801154	617
0	16653	299.142336910003	618
0	16663	299.300149475568	619
0	16735	300.5960945239	620
0	16747	300.816604619258	621
0	16765	301.175557677978	622
0	16797	301.725707953208	623
0	16854	302.540512805217	624
0	16866	302.850280915731	625
0	16880	303.328399156564	626
0	16943	304.610597347253	627
0	16955	305.015958999627	628
0	16961	305.224866335624	629
0	16987	305.66618514561	630
0	17016	305.866647963756	631
0	17092	307.602350955242	632
0	17118	307.852202271456	633
0	17132	308.206401740546	634
0	17168	309.452669893737	635
0	17215	310.196479057307	636
0	17243	310.355607291097	637
0	17247	310.451855761344	638
0	17292	311.038328987891	639
0	17320	311.40978024655	640
0	17324	311.453966976488	641
0	17484	314.297863842333	642
0	17535	315.514873267496	643
0	17581	316.638909102762	644
0	17677	318.000671626413	645
0	17681	318.023021909753	646
0	17751	319.58768198208	647
0	17759	319.851962062875	648
0	17763	320.083056274215	649
0	17818	320.805566075603	650
0	17858	321.517535570423	651
0	17866	321.902230414907	652
0	17932	323.048556360761	653
0	17942	323.191333133141	654
0	17950	323.292084801356	655
0	17977	323.73243920819	656
0	17983	323.817410710613	657
0	18005	324.216061863462	658
0	18031	324.4910346301	659
0	18043	324.81351211981	660
0	18055	325.158673587601	661
0	18091	325.893051329415	662
0	18095	325.909401201989	663
0	18103	326.131725305106	664
0	18107	326.13485867588	665
0	18113	326.208247759027	666
0	18156	326.390286215229	667
0	18168	326.629742287679	668
0	18172	326.66496368183	669
0	18200	327.28856005205	670
0	18246	327.993733067644	671
0	18261	328.296872217787	672
0	18282	328.688494880331	673
0	18293	328.841619197858	674
0	18394	330.289718095792	675
0	18416	330.690839414132	676
0	18422	331.027653758061	677
0	18464	331.814847294819	678
0	18468	331.952579651606	679
0	18482	332.313598041069	680
0	18498	332.603395138514	681
0	18561	333.710842047465	682
0	18598	334.375669275057	683
0	18602	334.437716756594	684
0	18630	334.792007629406	685
0	18634	334.818541968819	686
0	18638	335.001817653533	687
0	18644	335.196133295651	688
0	18683	336.013505379315	689
0	18738	336.754879275914	690
0	18744	336.919725845214	691
0	18748	337.026938075777	692
0	18754	337.262480283733	693
0	18764	337.476860413905	694
0	18788	337.819913218375	695
0	18796	338.425806711074	696
0	18800	338.431330590621	697
0	18821	338.49554514803	698
0	18833	338.949786900655	699
0	18845	339.08806846954	700
0	18893	340.036590977684	701
0	18897	340.166012882367	702
0	18921	340.518979161158	703
0	18925	340.627241454199	704
0	19005	342.475495538786	705
0	19028	342.654471538141	706
0	19047	343.262450060919	707
0	19087	343.811991534308	708
0	19091	343.86210230656	709
0	19095	343.933140783683	710
0	19101	344.303504048959	711
0	19137	344.700267641917	712
0	19166	345.215889661685	713
0	19219	345.829228251353	714
0	19231	346.028409793153	715
0	19245	346.23213031806	716
0	19257	346.318580470159	717
0	19317	347.118117950036	718
0	19377	348.277323267533	719
0	19436	349.627148411347	720
0	19458	349.969514361693	721
0	19498	350.519679180457	722
0	19508	350.743813417031	723
0	19522	351.147993198706	724
0	19572	351.598028472735	725
0	19576	351.599118776846	726
0	19601	352.049247034121	727
0	19619	352.286147855449	728
0	19625	352.357932612527	729
0	19637	352.612760290731	730
0	19674	353.747890576948	731
0	19686	353.779055083398	732
0	19698	354.162204319839	733
0	19719	354.364398518805	734
0	19758	355.175680617098	735
0	19787	355.990753034357	736
0	19803	356.348047206406	737
0	19902	358.18205446959	738
0	19936	358.685708353524	739
0	19964	359.068281451468	740
0	20005	359.635534206633	741
0	20029	360.092275301222	742
0	20047	360.242677027587	743
0	20077	360.671426737908	744
0	20083	360.724624632153	745
0	20095	360.841685673449	746
0	20137	361.487149557326	747
0	20155	361.796195229743	748
0	20159	362.027324786637	749
0	20169	362.173102369759	750
0	20206	362.872519960854	751
0	20220	363.200740536902	752
0	20228	363.296932487044	753
0	20264	363.639875887189	754
0	20290	363.800797729049	755
0	20294	363.963859839592	756
0	20298	363.970917500317	757
0	20310	364.354397602141	758
0	20314	364.398595042288	759
0	20333	364.635276444018	760
0	20353	365.024078972399	761
0	20365	365.388177729904	762
0	20381	365.964734650909	763
0	20459	367.636467076599	764
0	20469	367.694478794693	765
0	20477	367.740924775361	766
0	20483	367.820319302141	767
0	20542	369.070327646791	768
0	20570	369.57690782076	769
0	20594	369.999123163282	770
0	20598	370.035546835273	771
0	20602	370.115790355712	772
0	20612	370.308100420743	773
0	20622	370.39120661816	774
0	20670	371.332239266247	775
0	20690	371.564237933368	776
0	20750	372.885465483875	777
0	20800	373.974148135395	778
0	20853	374.721164446087	779
0	20880	375.386422257633	780
0	20910	375.74858356616	781
0	20934	376.330556820841	782
0	20963	376.574329342456	783
0	21040	377.976425375552	784
0	21044	378.043299268694	785
0	21105	379.760054301233	786
0	21179	381.046537946672	787
0	21201	381.680756818265	788
0	21230	381.982264797896	789
0	21260	382.743507843226	790
0	21274	382.916804816335	791
0	21286	383.401956196636	792
0	21330	384.507707472652	793
0	21373	385.303989406436	794
0	21388	385.666896696895	795
0	21398	385.694264482468	796
0	21447	386.99018950364	797
0	21485	387.541798483342	798
0	21489	387.644621181995	799
0	21556	388.76728134206	800
0	21571	388.882841128618	801
0	21579	389.019290376217	802
0	21593	389.186278957636	803
0	21630	389.465458918125	804
0	21650	389.857216704399	805
0	21690	390.58873056224	806
0	21824	393.7757372742	807
0	21894	394.873489726097	808
0	21900	395.317991513521	809
0	21963	395.921313244612	810
0	22025	397.394293982298	811
0	22055	397.902891296656	812
0	22059	397.99054251215	813
0	22154	400.081405263157	814
0	22160	400.268409054489	815
0	22207	401.083741884441	816
0	22211	401.13969114399	817
0	22291	402.854620724678	818
0	22339	403.752264886856	819
0	22345	403.86233507818	820
0	22355	404.256616823137	821
0	22367	404.357126742363	822
0	22408	404.898957997322	823
0	22412	405.024526908755	824
0	22437	405.63745571649	825
0	22443	405.74884274578	826
0	22509	406.819213658332	827
0	22517	407.174865036964	828
0	22550	407.827579825878	829
0	22561	408.327526449919	830
0	22596	408.979164719343	831
0	22639	409.676218867063	832
0	22671	410.343288957834	833
0	22685	410.750655203819	834
0	22699	411.094254761696	835
0	22716	411.245195135236	836
0	22736	411.656306966901	837
0	22768	411.937543466449	838
0	22772	412.015038765729	839
0	22780	412.162723652781	840
0	22801	412.325759611786	841
0	22811	412.45506436354	842
0	22832	412.618529535592	843
0	22874	413.387827612222	844
0	22906	413.836454428495	845
0	22922	414.411319412054	846
0	22976	415.649767078222	847
0	23040	417.425247944654	848
0	23095	418.921491302312	849
0	23108	419.24325770861	850
0	23144	419.721321411193	851
0	23203	420.793729491294	852
0	23314	422.880204386771	853
0	23332	423.282011247933	854
0	23350	423.630177058041	855
0	23366	423.917811877787	856
0	23370	423.999333902955	857
0	23384	424.272327139735	858
0	23411	424.829347863555	859
0	23415	425.069257095218	860
0	23421	425.30565518117	861
0	23448	425.571066140891	862
0	23478	425.809049501778	863
0	23482	425.828212152929	864
0	23503	426.251470189304	865
0	23539	427.132937770099	866
0	23551	427.425514857978	867
0	23597	427.970383088798	868
0	23654	429.152607958526	869
0	23700	429.930953662605	870
0	23706	430.325158040733	871
0	23710	430.334682360985	872
0	23746	430.765676961043	873
0	23766	431.32962213526	874
0	23772	431.361046851375	875
0	23828	432.172943771579	876
0	23887	433.249185503223	877
0	23891	433.256636284986	878
0	23910	433.577772729793	879
0	23944	434.208577566543	880
0	24022	436.223197870651	881
0	24100	437.849707179466	882
0	24108	438.076668255726	883
0	24114	438.305386342803	884
0	24144	438.965932764808	885
0	24156	439.177299179832	886
0	24176	439.512316235105	887
0	24180	439.620439999501	888
0	24208	440.115700506369	889
0	24270	440.90488442103	890
0	24353	442.42357834498	891
0	24377	442.561032243767	892
0	24381	442.66497652302	893