version 2
run General-0-20220104-13:45:17-3409
attr configname General
attr datetime 20220104-13:45:17
attr experiment General
attr inifile myNetStopAndWait.ini
attr iterationvars ""
attr iterationvarsf ""
attr measurement ""
attr network myNetStopAndWait
attr processid 3409
attr repetition 0
attr replication #0
attr resultdir results
attr runnumber 0
attr seedset 0

vector 0 myNetStopAndWait.conmutador1.repartidor numRcvd:vector ETV
attr interpolationmode none
attr source rcvdSignal
attr title "num received, vector"
vector 1 myNetStopAndWait.conmutador1.repartidor numSent:vector ETV
attr interpolationmode none
attr source sentSignal
attr title "num sent, vector"
vector 2 myNetStopAndWait.protocolLink1[1].transceptorEmisor numRcvd:vector ETV
attr interpolationmode none
attr source rcvdSignal
attr title "num received, vector"
vector 3 myNetStopAndWait.protocolLink1[1].transceptorEmisor bufferLength:vector ETV
attr interpolationmode none
attr source bufferSignal
attr title "num received, vector"
vector 4 myNetStopAndWait.conmutador5.repartidor numRcvd:vector ETV
attr interpolationmode none
attr source rcvdSignal
attr title "num received, vector"
vector 5 myNetStopAndWait.conmutador5.repartidor numSent:vector ETV
attr interpolationmode none
attr source sentSignal
attr title "num sent, vector"
vector 6 myNetStopAndWait.protocolLink5[1].transceptorEmisor numRcvd:vector ETV
attr interpolationmode none
attr source rcvdSignal
attr title "num received, vector"
vector 7 myNetStopAndWait.protocolLink5[1].transceptorEmisor bufferLength:vector ETV
attr interpolationmode none
attr source bufferSignal
attr title "num received, vector"
vector 8 myNetStopAndWait.protocolLink1[1].transceptorEmisor numSent:vector ETV
attr interpolationmode none
attr source sentSignal
attr title "num sent, vector"
vector 9 myNetStopAndWait.conmutador2.repartidor numRcvd:vector ETV
attr interpolationmode none
attr source rcvdSignal
attr title "num received, vector"
vector 10 myNetStopAndWait.conmutador2.repartidor numSent:vector ETV
attr interpolationmode none
attr source sentSignal
attr title "num sent, vector"
vector 11 myNetStopAndWait.protocolLink2[1].transceptorEmisor numRcvd:vector ETV
attr interpolationmode none
attr source rcvdSignal
attr title "num received, vector"
vector 12 myNetStopAndWait.protocolLink2[1].transceptorEmisor bufferLength:vector ETV
attr interpolationmode none
attr source bufferSignal
attr title "num received, vector"
vector 13 myNetStopAndWait.conmutador4.repartidor numRcvd:vector ETV
attr interpolationmode none
attr source rcvdSignal
attr title "num received, vector"
vector 14 myNetStopAndWait.protocolLink2[1].transceptorEmisor numSent:vector ETV
attr interpolationmode none
attr source sentSignal
attr title "num sent, vector"
vector 15 myNetStopAndWait.protocolLink2[0].transceptorEmisor numRcvd:vector ETV
attr interpolationmode none
attr source rcvdSignal
attr title "num received, vector"
vector 16 myNetStopAndWait.protocolLink2[0].transceptorEmisor bufferLength:vector ETV
attr interpolationmode none
attr source bufferSignal
attr title "num received, vector"
vector 17 myNetStopAndWait.protocolLink5[1].transceptorEmisor numSent:vector ETV
attr interpolationmode none
attr source sentSignal
attr title "num sent, vector"
vector 18 myNetStopAndWait.protocolLink5[0].transceptorEmisor numRcvd:vector ETV
attr interpolationmode none
attr source rcvdSignal
attr title "num received, vector"
vector 19 myNetStopAndWait.protocolLink5[0].transceptorEmisor bufferLength:vector ETV
attr interpolationmode none
attr source bufferSignal
attr title "num received, vector"
vector 20 myNetStopAndWait.protocolLink5[0].transceptorEmisor numSent:vector ETV
attr interpolationmode none
attr source sentSignal
attr title "num sent, vector"
vector 21 myNetStopAndWait.conmutador3.repartidor numRcvd:vector ETV
attr interpolationmode none
attr source rcvdSignal
attr title "num received, vector"
vector 22 myNetStopAndWait.protocolLink2[0].transceptorEmisor numSent:vector ETV
attr interpolationmode none
attr source sentSignal
attr title "num sent, vector"
vector 23 myNetStopAndWait.protocolLink1[0].transceptorEmisor numRcvd:vector ETV
attr interpolationmode none
attr source rcvdSignal
attr title "num received, vector"
vector 24 myNetStopAndWait.protocolLink1[0].transceptorEmisor bufferLength:vector ETV
attr interpolationmode none
attr source bufferSignal
attr title "num received, vector"
vector 25 myNetStopAndWait.protocolLink1[0].transceptorEmisor numSent:vector ETV
attr interpolationmode none
attr source sentSignal
attr title "num sent, vector"
0	2	0.449280202389	1
0	30	1.388762235642	2
0	68	2.28250604868	3
0	72	2.291990333237	4
0	76	2.373058580794	5
0	103	2.852832579054	6
0	107	2.872424156405	7
0	179	5.099672586657	8
0	216	5.689267368056	9
0	226	5.920132816769	10
0	348	7.557704390026	11
0	358	7.633099892176	12
0	362	7.905528464354	13
0	430	8.911914863623	14
0	438	9.040921249426	15
0	448	9.32587004546	16
0	457	9.424853914417	17
0	486	9.990031712688	18
0	535	10.879103356041	19
0	579	11.56644331757	20
0	593	11.61928690318	21
0	597	11.97841013316	22
0	697	13.875422009266	23
0	719	14.441111394203	24
0	737	14.620592051184	25
0	775	15.397464805281	26
0	797	15.763237469828	27
0	823	16.287382000124	28
0	860	17.093047969973	29
0	888	17.501057260668	30
0	892	17.517993188461	31
0	900	17.581779978236	32
0	916	17.684206112286	33
0	932	17.881988911888	34
0	936	17.917239884844	35
0	940	17.933741877785	36
0	944	18.079714919439	37
0	966	18.315698961726	38
0	995	18.65267069172	39
0	1022	19.517230520955	40
0	1032	19.693114216438	41
0	1118	20.803721363655	42
0	1130	21.107613737694	43
0	1139	21.270322094671	44
0	1157	21.473185266368	45
0	1185	21.717739473097	46
0	1193	21.950887988321	47
0	1197	21.997765681706	48
0	1201	22.081163561903	49
0	1215	22.290903217159	50
0	1227	22.461990556679	51
0	1264	22.765346757136	52
0	1334	23.855356923304	53
0	1404	25.046891084872	54
0	1429	25.645966759883	55
0	1437	26.091393670999	56
0	1479	27.464519581758	57
0	1483	27.517176791095	58
0	1489	27.579570553266	59
0	1496	27.713682106697	60
0	1502	28.33915644046	61
0	1506	28.350265766495	62
0	1548	28.826908732765	63
0	1552	29.209678287618	64
0	1617	30.798393602483	65
0	1629	31.01394451689	66
0	1768	33.19894445967	67
0	1774	33.366042162292	68
0	1862	35.228479291313	69
0	1901	35.772787357681	70
0	1905	35.841091784649	71
0	1987	37.224331888371	72
0	2023	37.718406203204	73
0	2112	39.686709287577	74
0	2123	39.809444027953	75
0	2127	39.90854468476	76
0	2131	40.02469736617	77
0	2148	40.393953624181	78
0	2172	40.588503646664	79
0	2182	40.817182603292	80
0	2214	41.699763479642	81
0	2224	41.894679608754	82
0	2233	41.946070625446	83
0	2259	42.511340632103	84
0	2341	44.04738499131	85
0	2345	44.059671063907	86
0	2349	44.170948882587	87
0	2397	45.130447586067	88
0	2419	46.109954674728	89
0	2468	46.620034714229	90
0	2473	47.097366054542	91
0	2481	47.252182667143	92
0	2530	48.299316351301	93
0	2561	48.797567819244	94
0	2565	48.854805183596	95
0	2606	49.62792910356	96
0	2620	50.130465042777	97
0	2630	50.139596092514	98
0	2715	51.424537885002	99
0	2719	51.445563736371	100
0	2783	52.601921382359	101
0	2797	52.912411603144	102
0	2819	53.271214249543	103
0	2858	53.541460934094	104
0	2890	53.890144559554	105
0	2900	54.090828540734	106
0	2978	55.557744386605	107
0	2992	55.834308895282	108
0	3005	56.242517354898	109
0	3038	56.615703406744	110
0	3101	57.427303674631	111
0	3117	57.754672291689	112
0	3135	58.103644910269	113
0	3153	58.509760263376	114
0	3167	59.036771538667	115
0	3229	60.32720780652	116
0	3237	60.409283029847	117
0	3253	60.749306666665	118
0	3257	60.81990834605	119
0	3263	61.027547175997	120
0	3267	61.082447952592	121
0	3271	61.207821643912	122
0	3296	61.685436732136	123
0	3324	61.85438144859	124
0	3334	62.293686038815	125
0	3338	62.377380750143	126
0	3346	62.453047796153	127
0	3373	62.881044342183	128
0	3412	63.516580059193	129
0	3480	65.137806369923	130
0	3486	65.330211072229	131
0	3506	65.507297112607	132
0	3548	66.425594701432	133
0	3556	66.585272847675	134
0	3578	67.259281038307	135
0	3600	67.536685078405	136
0	3606	67.550857192837	137
0	3630	67.732971034013	138
0	3654	68.178418776952	139
0	3682	68.674817374908	140
0	3690	69.183374396526	141
0	3727	69.992653778755	142
0	3788	70.712797275745	143
0	3796	70.851684278809	144
0	3800	70.871599302628	145
0	3909	72.906712637284	146
0	3913	72.989673235455	147
0	3939	73.449355670252	148
0	3972	73.928150364199	149
0	3994	74.495832034388	150
0	4027	74.7785104597	151
0	4091	75.694853373804	152
0	4095	75.777318426409	153
0	4153	76.734652825632	154
0	4157	76.794085067698	155
0	4165	77.182225030848	156
0	4169	77.231171482244	157
0	4189	77.4877425069	158
0	4193	77.51470519323	159
0	4246	77.817424726673	160
0	4250	77.871882096865	161
0	4285	78.720267728903	162
0	4297	79.001172319987	163
0	4309	79.169031024912	164
0	4315	79.302869872192	165
0	4319	79.333174315283	166
0	4372	80.025396016428	167
0	4444	80.679343548605	168
0	4456	81.082799521277	169
0	4460	81.201622356663	170
0	4510	81.839971889744	171
0	4518	81.964164090345	172
0	4526	82.114887294362	173
0	4540	82.363933411429	174
0	4571	83.011691120455	175
0	4584	83.43548196275	176
0	4634	84.279045519421	177
0	4727	86.004536447117	178
0	4785	87.18955760915	179
0	4789	87.221679997632	180
0	4813	87.423599896023	181
0	4831	88.06740849931	182
0	4862	88.643382784913	183
0	4884	89.318892535756	184
0	4911	89.592355099509	185
0	4921	89.711253737102	186
0	4925	89.726374869237	187
0	4941	90.227366809735	188
0	4979	90.667166654954	189
0	4995	91.079772328029	190
0	5013	91.380951826463	191
0	5043	91.75867525209	192
0	5100	92.997447644363	193
0	5181	94.647136722694	194
0	5197	95.081182544122	195
0	5220	95.976028745065	196
0	5330	98.301809136758	197
0	5335	98.310174100103	198
0	5391	99.404200069608	199
0	5408	100.07503693551	200
0	5412	100.086792360993	201
0	5441	100.405782710763	202
0	5447	100.571033414455	203
0	5509	101.694005902858	204
0	5513	101.88178836927	205
0	5517	102.032149415465	206
0	5608	103.076943617316	207
0	5652	103.56826959178	208
0	5672	103.885758172722	209
0	5676	103.913777891548	210
0	5680	104.23338243738	211
0	5754	104.776008877905	212
0	5762	104.822967816146	213
0	5774	105.083437193187	214
0	5812	105.403489846738	215
0	5835	105.983419556173	216
0	5845	106.062301088127	217
0	5849	106.1107105203	218
0	5881	106.658159751448	219
0	5893	106.808128003034	220
0	5901	106.845350421968	221
0	5909	107.148734577003	222
0	5930	107.548228509727	223
0	5946	108.132693357769	224
0	5960	108.311550326649	225
0	5964	108.316968457311	226
0	5968	108.332154014617	227
0	5980	108.519546368629	228
0	5988	108.927374222785	229
0	6010	109.227107205897	230
0	6047	109.575630971699	231
0	6106	110.4996695607	232
0	6150	110.719453760891	233
0	6164	111.035217890053	234
0	6174	111.218053468971	235
0	6217	112.392289647369	236
0	6296	113.557403454094	237
0	6322	114.219675192146	238
1	2	0.449280202389	1
1	30	1.388762235642	2
1	68	2.28250604868	3
1	72	2.291990333237	4
1	76	2.373058580794	5
1	103	2.852832579054	6
1	107	2.872424156405	7
1	179	5.099672586657	8
1	216	5.689267368056	9
1	226	5.920132816769	10
1	348	7.557704390026	11
1	358	7.633099892176	12
1	362	7.905528464354	13
1	430	8.911914863623	14
1	438	9.040921249426	15
1	448	9.32587004546	16
1	457	9.424853914417	17
1	486	9.990031712688	18
1	535	10.879103356041	19
1	579	11.56644331757	20
1	593	11.61928690318	21
1	597	11.97841013316	22
1	697	13.875422009266	23
1	719	14.441111394203	24
1	737	14.620592051184	25
1	775	15.397464805281	26
1	797	15.763237469828	27
1	823	16.287382000124	28
1	860	17.093047969973	29
1	888	17.501057260668	30
1	892	17.517993188461	31
1	900	17.581779978236	32
1	916	17.684206112286	33
1	932	17.881988911888	34
1	936	17.917239884844	35
1	940	17.933741877785	36
1	944	18.079714919439	37
1	966	18.315698961726	38
1	995	18.65267069172	39
1	1022	19.517230520955	40
1	1032	19.693114216438	41
1	1118	20.803721363655	42
1	1130	21.107613737694	43
1	1139	21.270322094671	44
1	1157	21.473185266368	45
1	1185	21.717739473097	46
1	1193	21.950887988321	47
1	1197	21.997765681706	48
1	1201	22.081163561903	49
1	1215	22.290903217159	50
1	1227	22.461990556679	51
1	1264	22.765346757136	52
1	1334	23.855356923304	53
1	1404	25.046891084872	54
1	1429	25.645966759883	55
1	1437	26.091393670999	56
1	1479	27.464519581758	57
1	1483	27.517176791095	58
1	1489	27.579570553266	59
1	1496	27.713682106697	60
1	1502	28.33915644046	61
1	1506	28.350265766495	62
1	1548	28.826908732765	63
1	1552	29.209678287618	64
1	1617	30.798393602483	65
1	1629	31.01394451689	66
1	1768	33.19894445967	67
1	1774	33.366042162292	68
1	1862	35.228479291313	69
1	1901	35.772787357681	70
1	1905	35.841091784649	71
1	1987	37.224331888371	72
1	2023	37.718406203204	73
1	2112	39.686709287577	74
1	2123	39.809444027953	75
1	2127	39.90854468476	76
1	2131	40.02469736617	77
1	2148	40.393953624181	78
1	2172	40.588503646664	79
1	2182	40.817182603292	80
1	2214	41.699763479642	81
1	2224	41.894679608754	82
1	2233	41.946070625446	83
1	2259	42.511340632103	84
1	2341	44.04738499131	85
1	2345	44.059671063907	86
1	2349	44.170948882587	87
1	2397	45.130447586067	88
1	2419	46.109954674728	89
1	2468	46.620034714229	90
1	2473	47.097366054542	91
1	2481	47.252182667143	92
1	2530	48.299316351301	93
1	2561	48.797567819244	94
1	2565	48.854805183596	95
1	2606	49.62792910356	96
1	2620	50.130465042777	97
1	2630	50.139596092514	98
1	2715	51.424537885002	99
1	2719	51.445563736371	100
1	2783	52.601921382359	101
1	2797	52.912411603144	102
1	2819	53.271214249543	103
1	2858	53.541460934094	104
1	2890	53.890144559554	105
1	2900	54.090828540734	106
1	2978	55.557744386605	107
1	2992	55.834308895282	108
1	3005	56.242517354898	109
1	3038	56.615703406744	110
1	3101	57.427303674631	111
1	3117	57.754672291689	112
1	3135	58.103644910269	113
1	3153	58.509760263376	114
1	3167	59.036771538667	115
1	3229	60.32720780652	116
1	3237	60.409283029847	117
1	3253	60.749306666665	118
1	3257	60.81990834605	119
1	3263	61.027547175997	120
1	3267	61.082447952592	121
1	3271	61.207821643912	122
1	3296	61.685436732136	123
1	3324	61.85438144859	124
1	3334	62.293686038815	125
1	3338	62.377380750143	126
1	3346	62.453047796153	127
1	3373	62.881044342183	128
1	3412	63.516580059193	129
1	3480	65.137806369923	130
1	3486	65.330211072229	131
1	3506	65.507297112607	132
1	3548	66.425594701432	133
1	3556	66.585272847675	134
1	3578	67.259281038307	135
1	3600	67.536685078405	136
1	3606	67.550857192837	137
1	3630	67.732971034013	138
1	3654	68.178418776952	139
1	3682	68.674817374908	140
1	3690	69.183374396526	141
1	3727	69.992653778755	142
1	3788	70.712797275745	143
1	3796	70.851684278809	144
1	3800	70.871599302628	145
1	3909	72.906712637284	146
1	3913	72.989673235455	147
1	3939	73.449355670252	148
1	3972	73.928150364199	149
1	3994	74.495832034388	150
1	4027	74.7785104597	151
1	4091	75.694853373804	152
1	4095	75.777318426409	153
1	4153	76.734652825632	154
1	4157	76.794085067698	155
1	4165	77.182225030848	156
1	4169	77.231171482244	157
1	4189	77.4877425069	158
1	4193	77.51470519323	159
1	4246	77.817424726673	160
1	4250	77.871882096865	161
1	4285	78.720267728903	162
1	4297	79.001172319987	163
1	4309	79.169031024912	164
1	4315	79.302869872192	165
1	4319	79.333174315283	166
1	4372	80.025396016428	167
1	4444	80.679343548605	168
1	4456	81.082799521277	169
1	4460	81.201622356663	170
1	4510	81.839971889744	171
1	4518	81.964164090345	172
1	4526	82.114887294362	173
1	4540	82.363933411429	174
1	4571	83.011691120455	175
1	4584	83.43548196275	176
1	4634	84.279045519421	177
1	4727	86.004536447117	178
1	4785	87.18955760915	179
1	4789	87.221679997632	180
1	4813	87.423599896023	181
1	4831	88.06740849931	182
1	4862	88.643382784913	183
1	4884	89.318892535756	184
1	4911	89.592355099509	185
1	4921	89.711253737102	186
1	4925	89.726374869237	187
1	4941	90.227366809735	188
1	4979	90.667166654954	189
1	4995	91.079772328029	190
1	5013	91.380951826463	191
1	5043	91.75867525209	192
1	5100	92.997447644363	193
1	5181	94.647136722694	194
1	5197	95.081182544122	195
1	5220	95.976028745065	196
1	5330	98.301809136758	197
1	5335	98.310174100103	198
1	5391	99.404200069608	199
1	5408	100.07503693551	200
1	5412	100.086792360993	201
1	5441	100.405782710763	202
1	5447	100.571033414455	203
1	5509	101.694005902858	204
1	5513	101.88178836927	205
1	5517	102.032149415465	206
1	5608	103.076943617316	207
1	5652	103.56826959178	208
1	5672	103.885758172722	209
1	5676	103.913777891548	210
1	5680	104.23338243738	211
1	5754	104.776008877905	212
1	5762	104.822967816146	213
1	5774	105.083437193187	214
1	5812	105.403489846738	215
1	5835	105.983419556173	216
1	5845	106.062301088127	217
1	5849	106.1107105203	218
1	5881	106.658159751448	219
1	5893	106.808128003034	220
1	5901	106.845350421968	221
1	5909	107.148734577003	222
1	5930	107.548228509727	223
1	5946	108.132693357769	224
1	5960	108.311550326649	225
1	5964	108.316968457311	226
1	5968	108.332154014617	227
1	5980	108.519546368629	228
1	5988	108.927374222785	229
1	6010	109.227107205897	230
1	6047	109.575630971699	231
1	6106	110.4996695607	232
1	6150	110.719453760891	233
1	6164	111.035217890053	234
1	6174	111.218053468971	235
1	6217	112.392289647369	236
1	6296	113.557403454094	237
1	6322	114.219675192146	238
2	4	0.449280202389	1
2	32	1.388762235642	2
2	70	2.28250604868	3
2	74	2.291990333237	4
2	78	2.373058580794	5
2	105	2.852832579054	6
2	109	2.872424156405	7
2	181	5.099672586657	8
2	228	5.920132816769	9
2	350	7.557704390026	10
2	360	7.633099892176	11
2	364	7.905528464354	12
2	432	8.911914863623	13
2	440	9.040921249426	14
2	450	9.32587004546	15
2	459	9.424853914417	16
2	488	9.990031712688	17
2	595	11.61928690318	18
2	599	11.97841013316	19
2	699	13.875422009266	20
2	721	14.441111394203	21
2	777	15.397464805281	22
2	799	15.763237469828	23
2	825	16.287382000124	24
2	862	17.093047969973	25
2	890	17.501057260668	26
2	894	17.517993188461	27
2	902	17.581779978236	28
2	934	17.881988911888	29
2	942	17.933741877785	30
2	968	18.315698961726	31
2	997	18.65267069172	32
2	1120	20.803721363655	33
2	1132	21.107613737694	34
2	1141	21.270322094671	35
2	1159	21.473185266368	36
2	1195	21.950887988321	37
2	1203	22.081163561903	38
2	1217	22.290903217159	39
2	1229	22.461990556679	40
2	1266	22.765346757136	41
2	1406	25.046891084872	42
2	1431	25.645966759883	43
2	1439	26.091393670999	44
2	1481	27.464519581758	45
2	1485	27.517176791095	46
2	1491	27.579570553266	47
2	1498	27.713682106697	48
2	1504	28.33915644046	49
2	1508	28.350265766495	50
2	1550	28.826908732765	51
2	1554	29.209678287618	52
2	1619	30.798393602483	53
2	1631	31.01394451689	54
2	1770	33.19894445967	55
2	1776	33.366042162292	56
2	1864	35.228479291313	57
2	1903	35.772787357681	58
2	1989	37.224331888371	59
2	2114	39.686709287577	60
2	2125	39.809444027953	61
2	2129	39.90854468476	62
2	2133	40.02469736617	63
2	2174	40.588503646664	64
2	2184	40.817182603292	65
2	2235	41.946070625446	66
2	2343	44.04738499131	67
2	2347	44.059671063907	68
2	2351	44.170948882587	69
2	2399	45.130447586067	70
2	2421	46.109954674728	71
2	2475	47.097366054542	72
2	2483	47.252182667143	73
2	2563	48.797567819244	74
2	2721	51.445563736371	75
2	2821	53.271214249543	76
2	2860	53.541460934094	77
2	2892	53.890144559554	78
2	2902	54.090828540734	79
2	2980	55.557744386605	80
2	3007	56.242517354898	81
2	3040	56.615703406744	82
2	3119	57.754672291689	83
2	3137	58.103644910269	84
2	3155	58.509760263376	85
2	3169	59.036771538667	86
2	3239	60.409283029847	87
2	3255	60.749306666665	88
2	3259	60.81990834605	89
2	3265	61.027547175997	90
2	3269	61.082447952592	91
2	3298	61.685436732136	92
2	3326	61.85438144859	93
2	3336	62.293686038815	94
2	3340	62.377380750143	95
2	3348	62.453047796153	96
2	3375	62.881044342183	97
2	3488	65.330211072229	98
2	3508	65.507297112607	99
2	3558	66.585272847675	100
2	3580	67.259281038307	101
2	3602	67.536685078405	102
2	3608	67.550857192837	103
2	3632	67.732971034013	104
2	3656	68.178418776952	105
2	3684	68.674817374908	106
2	3692	69.183374396526	107
2	3729	69.992653778755	108
2	3798	70.851684278809	109
2	3802	70.871599302628	110
2	3915	72.989673235455	111
2	3974	73.928150364199	112
2	3996	74.495832034388	113
2	4029	74.7785104597	114
2	4093	75.694853373804	115
2	4097	75.777318426409	116
2	4159	76.794085067698	117
2	4171	77.231171482244	118
2	4191	77.4877425069	119
2	4195	77.51470519323	120
2	4248	77.817424726673	121
2	4287	78.720267728903	122
2	4299	79.001172319987	123
2	4311	79.169031024912	124
2	4317	79.302869872192	125
2	4446	80.679343548605	126
2	4458	81.082799521277	127
2	4512	81.839971889744	128
2	4520	81.964164090345	129
2	4573	83.011691120455	130
2	4586	83.43548196275	131
2	4787	87.18955760915	132
2	4791	87.221679997632	133
2	4815	87.423599896023	134
2	4833	88.06740849931	135
2	4864	88.643382784913	136
2	4913	89.592355099509	137
2	4923	89.711253737102	138
2	4943	90.227366809735	139
2	4981	90.667166654954	140
2	4997	91.079772328029	141
2	5015	91.380951826463	142
2	5045	91.75867525209	143
2	5102	92.997447644363	144
2	5183	94.647136722694	145
2	5199	95.081182544122	146
2	5222	95.976028745065	147
2	5337	98.310174100103	148
2	5393	99.404200069608	149
2	5443	100.405782710763	150
2	5449	100.571033414455	151
2	5511	101.694005902858	152
2	5515	101.88178836927	153
2	5519	102.032149415465	154
2	5674	103.885758172722	155
2	5678	103.913777891548	156
2	5682	104.23338243738	157
2	5756	104.776008877905	158
2	5776	105.083437193187	159
2	5814	105.403489846738	160
2	5847	106.062301088127	161
2	5851	106.1107105203	162
2	5895	106.808128003034	163
2	5903	106.845350421968	164
2	5911	107.148734577003	165
2	5932	107.548228509727	166
2	5962	108.311550326649	167
2	5970	108.332154014617	168
2	5982	108.519546368629	169
2	6012	109.227107205897	170
2	6049	109.575630971699	171
2	6108	110.4996695607	172
2	6219	112.392289647369	173
2	6298	113.557403454094	174
2	6324	114.219675192146	175
3	4	0.449280202389	1
3	4	0.449280202389	0
3	32	1.388762235642	1
3	32	1.388762235642	0
3	70	2.28250604868	1
3	74	2.291990333237	2
3	78	2.373058580794	3
3	85	2.388856568975	2
3	105	2.852832579054	3
3	109	2.872424156405	4
3	131	3.388897235642	3
3	138	3.389077235642	2
3	181	5.099672586657	3
3	228	5.920132816769	4
3	254	6.389135902309	3
3	268	6.389295902309	2
3	323	7.389483568976	1
3	350	7.557704390026	2
3	360	7.633099892176	3
3	364	7.905528464354	4
3	385	8.389541235643	3
3	391	8.389615235643	2
3	397	8.38977490231	1
3	432	8.911914863623	2
3	440	9.040921249426	3
3	450	9.32587004546	4
3	459	9.424853914417	5
3	488	9.990031712688	6
3	513	10.38989390231	5
3	595	11.61928690318	6
3	599	11.97841013316	7
3	699	13.875422009266	8
3	721	14.441111394203	9
3	777	15.397464805281	10
3	799	15.763237469828	11
3	825	16.287382000124	12
3	862	17.093047969973	13
3	890	17.501057260668	14
3	894	17.517993188461	15
3	902	17.581779978236	16
3	934	17.881988911888	17
3	942	17.933741877785	18
3	968	18.315698961726	19
3	997	18.65267069172	20
3	1048	20.389918568977	19
3	1054	20.390534235644	18
3	1120	20.803721363655	19
3	1132	21.107613737694	20
3	1141	21.270322094671	21
3	1148	21.390559902311	20
3	1159	21.473185266368	21
3	1195	21.950887988321	22
3	1203	22.081163561903	23
3	1217	22.290903217159	24
3	1229	22.461990556679	25
3	1266	22.765346757136	26
3	1406	25.046891084872	27
3	1431	25.645966759883	28
3	1439	26.091393670999	29
3	1452	26.390739902311	28
3	1481	27.464519581758	29
3	1485	27.517176791095	30
3	1491	27.579570553266	31
3	1498	27.713682106697	32
3	1504	28.33915644046	33
3	1508	28.350265766495	34
3	1517	28.390977902311	33
3	1523	28.391060568978	32
3	1550	28.826908732765	33
3	1554	29.209678287618	34
3	1619	30.798393602483	35
3	1631	31.01394451689	36
3	1674	32.391087568978	35
3	1680	32.391251568978	34
3	1686	32.391283568978	33
3	1692	32.391409902311	32
3	1698	32.391533902311	31
3	1704	32.391744902311	30
3	1710	32.391865568978	29
3	1770	33.19894445967	30
3	1776	33.366042162292	31
3	1864	35.228479291313	32
3	1903	35.772787357681	33
3	1930	36.392214235645	32
3	1945	36.392461568978	31
3	1952	36.393022568978	30
3	1958	36.393167902311	29
3	1964	36.393362902311	28
3	1989	37.224331888371	29
3	2093	39.393526902311	28
3	2114	39.686709287577	29
3	2125	39.809444027953	30
3	2129	39.90854468476	31
3	2133	40.02469736617	32
3	2174	40.588503646664	33
3	2184	40.817182603292	34
3	2199	41.393823568978	33
3	2235	41.946070625446	34
3	2343	44.04738499131	35
3	2347	44.059671063907	36
3	2351	44.170948882587	37
3	2399	45.130447586067	38
3	2421	46.109954674728	39
3	2436	46.393897235645	38
3	2475	47.097366054542	39
3	2483	47.252182667143	40
3	2541	48.393967568978	39
3	2563	48.797567819244	40
3	2701	51.394046902311	39
3	2707	51.394230568978	38
3	2721	51.445563736371	39
3	2821	53.271214249543	40
3	2850	53.394476235645	39
3	2860	53.541460934094	40
3	2892	53.890144559554	41
3	2902	54.090828540734	42
3	2980	55.557744386605	43
3	3007	56.242517354898	44
3	3040	56.615703406744	45
3	3076	57.394568568978	44
3	3085	57.394678902311	43
3	3119	57.754672291689	44
3	3137	58.103644910269	45
3	3155	58.509760263376	46
3	3169	59.036771538667	47
3	3239	60.409283029847	48
3	3255	60.749306666665	49
3	3259	60.81990834605	50
3	3265	61.027547175997	51
3	3269	61.082447952592	52
3	3298	61.685436732136	53
3	3326	61.85438144859	54
3	3336	62.293686038815	55
3	3340	62.377380750143	56
3	3348	62.453047796153	57
3	3375	62.881044342183	58
3	3455	64.394841568978	57
3	3488	65.330211072229	58
3	3495	65.395035235645	57
3	3502	65.395423568978	56
3	3508	65.507297112607	57
3	3558	66.585272847675	58
3	3580	67.259281038307	59
3	3602	67.536685078405	60
3	3608	67.550857192837	61
3	3632	67.732971034013	62
3	3656	68.178418776952	63
3	3666	68.395459902311	62
3	3673	68.395625235644	61
3	3684	68.674817374908	62
3	3692	69.183374396526	63
3	3706	69.395650235644	62
3	3729	69.992653778755	63
3	3743	70.395760235644	62
3	3749	70.395782902311	61
3	3798	70.851684278809	62
3	3802	70.871599302628	63
3	3811	71.395886902311	62
3	3915	72.989673235455	63
3	3974	73.928150364199	64
3	3996	74.495832034388	65
3	4029	74.7785104597	66
3	4093	75.694853373804	67
3	4097	75.777318426409	68
3	4159	76.794085067698	69
3	4171	77.231171482244	70
3	4180	77.396234235644	69
3	4191	77.4877425069	70
3	4195	77.51470519323	71
3	4248	77.817424726673	72
3	4287	78.720267728903	73
3	4299	79.001172319987	74
3	4311	79.169031024912	75
3	4317	79.302869872192	76
3	4395	80.396336902311	75
3	4446	80.679343548605	76
3	4458	81.082799521277	77
3	4512	81.839971889744	78
3	4520	81.964164090345	79
3	4573	83.011691120455	80
3	4586	83.43548196275	81
3	4680	85.396432902311	80
3	4742	86.396448902311	79
3	4787	87.18955760915	80
3	4791	87.221679997632	81
3	4808	87.396553235644	80
3	4815	87.423599896023	81
3	4833	88.06740849931	82
3	4864	88.643382784913	83
3	4893	89.396574235644	82
3	4913	89.592355099509	83
3	4923	89.711253737102	84
3	4943	90.227366809735	85
3	4981	90.667166654954	86
3	4997	91.079772328029	87
3	5015	91.380951826463	88
3	5022	91.396626568977	87
3	5045	91.75867525209	88
3	5102	92.997447644363	89
3	5123	93.396690568977	88
3	5183	94.647136722694	89
3	5199	95.081182544122	90
3	5222	95.976028745065	91
3	5239	96.39695890231	90
3	5245	96.396995568977	89
3	5337	98.310174100103	90
3	5344	98.397037235644	89
3	5393	99.404200069608	90
3	5443	100.405782710763	91
3	5449	100.571033414455	92
3	5511	101.694005902858	93
3	5515	101.88178836927	94
3	5519	102.032149415465	95
3	5537	102.397513568977	94
3	5543	102.397738235644	93
3	5549	102.397960235644	92
3	5633	103.398048568977	91
3	5674	103.885758172722	92
3	5678	103.913777891548	93
3	5682	104.23338243738	94
3	5721	104.39825090231	93
3	5727	104.398387235643	92
3	5756	104.776008877905	93
3	5776	105.083437193187	94
3	5803	105.398461568976	93
3	5814	105.403489846738	94
3	5847	106.062301088127	95
3	5851	106.1107105203	96
3	5864	106.398628568976	95
3	5895	106.808128003034	96
3	5903	106.845350421968	97
3	5911	107.148734577003	98
3	5932	107.548228509727	99
3	5962	108.311550326649	100
3	5970	108.332154014617	101
3	5982	108.519546368629	102
3	6012	109.227107205897	103
3	6025	109.398705235643	102
3	6031	109.39881690231	101
3	6037	109.398948568977	100
3	6049	109.575630971699	101
3	6108	110.4996695607	102
3	6219	112.392289647369	103
3	6277	113.399144235644	102
3	6298	113.557403454094	103
3	6324	114.219675192146	104
4	7	0.449414535722	1
4	21	0.975772678852	2
4	58	2.27489978075	3
4	82	2.388840568975	4
4	94	2.59574714303	5
4	99	2.817449152469	6
4	111	3.043500185012	7
4	128	3.388881235642	8
4	135	3.389061235642	9
4	141	3.389119902309	10
4	148	3.572413384914	11
4	196	5.44692915678	12
4	200	5.451629532035	13
4	204	5.522294891532	14
4	251	6.389119902309	15
4	265	6.389279902309	16
4	272	6.44293613499	17
4	299	6.909137589391	18
4	303	6.926239298191	19
4	320	7.389467568976	20
4	334	7.454164074268	21
4	382	8.389525235643	22
4	388	8.389599235643	23
4	394	8.38975890231	24
4	418	8.467118428554	25
4	424	8.584880718495	26
4	434	9.006370106246	27
4	442	9.050947250332	28
4	490	10.115282238926	29
4	494	10.115309914873	30
4	504	10.275097241924	31
4	510	10.38987790231	32
4	531	10.605348786638	33
4	545	11.047241619156	34
4	563	11.358260086105	35
4	601	12.045431604908	36
4	631	12.511737546251	37
4	723	14.515712460802	38
4	745	14.822432002352	39
4	765	15.389902568977	40
4	791	15.576539596842	41
4	809	15.933231732176	42
4	817	16.036824321674	43
4	827	16.34206575744	44
4	848	16.596666997598	45
4	880	17.392445033716	46
4	912	17.668296849655	47
4	920	17.716567488687	48
4	924	17.851929681675	49
4	928	17.868746642323	50
4	956	18.228569094391	51
4	1045	20.389902568977	52
4	1051	20.390518235644	53
4	1083	20.54870897934	54
4	1106	20.631355483385	55
4	1110	20.781031985136	56
4	1122	21.042087633463	57
4	1126	21.055001655894	58
4	1145	21.390543902311	59
4	1153	21.407476315575	60
4	1177	21.621696824508	61
4	1181	21.637047711129	62
4	1189	21.815130594487	63
4	1205	22.223426941151	64
4	1209	22.227700950412	65
4	1219	22.345403881578	66
4	1268	22.90270939639	67
4	1276	23.101683588532	68
4	1324	23.587708087472	69
4	1330	23.729817958383	70
4	1339	24.094321312217	71
4	1343	24.198172958402	72
4	1363	24.574557782916	73
4	1389	24.686357313601	74
4	1410	25.325358385054	75
4	1433	26.050019318072	76
4	1449	26.390723902311	77
4	1475	27.463281327693	78
4	1514	28.390961902311	79
4	1520	28.391044568978	80
4	1562	29.418351704089	81
4	1575	29.78341271898	82